file 4524171 1712096314                                         
version 3
run AlohaRanurado-9-20240403-00:18:30-28592
attr configname AlohaRanurado
attr datetime 20240403-00:18:30
attr datetimef 20240403-001830
attr experiment AlohaRanurado
attr inifile omnetpp.ini
attr iterationvars "$iaMean=5, $numHosts=20"
attr iterationvarsd iaMean=5/numHosts=20
attr iterationvarsf iaMean=5,numHosts=20-
attr measurement "$iaMean=5, $numHosts=20"
attr network Aloha
attr processid 28592
attr repetition 0
attr replication #0
attr resultdir results
attr runnumber 9
attr seedset 9
itervar iaMean 5
itervar numHosts 20
config description "slotted Aloha, overloaded"
config Aloha.slotTime 100ms
config Aloha.host[*].iaTime exponential(5s)
config Aloha.numHosts 20
config repeat 1
config sim-time-limit 2h
config network Aloha
config Aloha.numHosts 20
config Aloha.slotTime 0s
config Aloha.txRate 9.6kbps
config Aloha.host[*].pkLenBits 952b
config **.x "uniform(0m, 1000m)"
config **.y "uniform(0m, 1000m)"
config **.animationHoldTimeOnCollision 0s
config **.idleAnimationSpeed 1
config **.transmissionEdgeAnimationSpeed 1e-6
config **.midTransmissionAnimationSpeed 1e-1
config sim-time-limit 1000s
config repeat 3
config Aloha.host[*].iaTime exponential(2s)

vector 0 Aloha.server serverChannelState:vector ETV
attr enum IDLE=0,TRANSMISSION=1,COLLISION=2
attr recordingmode vector
attr source channelState
attr title "Channel state"
vector 1 Aloha.host[0] radioState:vector ETV
attr enum IDLE=0,TRANSMIT=1
attr recordingmode vector
attr source state
attr title "Radio state"
vector 2 Aloha.host[1] radioState:vector ETV
attr enum IDLE=0,TRANSMIT=1
attr recordingmode vector
attr source state
attr title "Radio state"
vector 3 Aloha.host[2] radioState:vector ETV
attr enum IDLE=0,TRANSMIT=1
attr recordingmode vector
attr source state
attr title "Radio state"
vector 4 Aloha.host[3] radioState:vector ETV
attr enum IDLE=0,TRANSMIT=1
attr recordingmode vector
attr source state
attr title "Radio state"
vector 5 Aloha.host[4] radioState:vector ETV
attr enum IDLE=0,TRANSMIT=1
attr recordingmode vector
attr source state
attr title "Radio state"
vector 6 Aloha.host[5] radioState:vector ETV
attr enum IDLE=0,TRANSMIT=1
attr recordingmode vector
attr source state
attr title "Radio state"
vector 7 Aloha.host[6] radioState:vector ETV
attr enum IDLE=0,TRANSMIT=1
attr recordingmode vector
attr source state
attr title "Radio state"
vector 8 Aloha.host[7] radioState:vector ETV
attr enum IDLE=0,TRANSMIT=1
attr recordingmode vector
attr source state
attr title "Radio state"
vector 9 Aloha.host[8] radioState:vector ETV
attr enum IDLE=0,TRANSMIT=1
attr recordingmode vector
attr source state
attr title "Radio state"
vector 10 Aloha.host[9] radioState:vector ETV
attr enum IDLE=0,TRANSMIT=1
attr recordingmode vector
attr source state
attr title "Radio state"
vector 11 Aloha.host[10] radioState:vector ETV
attr enum IDLE=0,TRANSMIT=1
attr recordingmode vector
attr source state
attr title "Radio state"
vector 12 Aloha.host[11] radioState:vector ETV
attr enum IDLE=0,TRANSMIT=1
attr recordingmode vector
attr source state
attr title "Radio state"
vector 13 Aloha.host[12] radioState:vector ETV
attr enum IDLE=0,TRANSMIT=1
attr recordingmode vector
attr source state
attr title "Radio state"
vector 14 Aloha.host[13] radioState:vector ETV
attr enum IDLE=0,TRANSMIT=1
attr recordingmode vector
attr source state
attr title "Radio state"
vector 15 Aloha.host[14] radioState:vector ETV
attr enum IDLE=0,TRANSMIT=1
attr recordingmode vector
attr source state
attr title "Radio state"
vector 16 Aloha.host[15] radioState:vector ETV
attr enum IDLE=0,TRANSMIT=1
attr recordingmode vector
attr source state
attr title "Radio state"
vector 17 Aloha.host[16] radioState:vector ETV
attr enum IDLE=0,TRANSMIT=1
attr recordingmode vector
attr source state
attr title "Radio state"
vector 18 Aloha.host[17] radioState:vector ETV
attr enum IDLE=0,TRANSMIT=1
attr recordingmode vector
attr source state
attr title "Radio state"
vector 19 Aloha.host[18] radioState:vector ETV
attr enum IDLE=0,TRANSMIT=1
attr recordingmode vector
attr source state
attr title "Radio state"
vector 20 Aloha.host[19] radioState:vector ETV
attr enum IDLE=0,TRANSMIT=1
attr recordingmode vector
attr source state
attr title "Radio state"
vector 21 Aloha.server channelUtilizationVEC:vector ETV
attr interpolationmode linear
attr recordingmode vector
attr source timeavg(receive)
attr title "Utilización del Canal"
0	4545 934464 0 68486 0 4593.20000044212 32768 0 2 20812 26716
21	939009 1458495 4 91432 0.400003057317 6125.099167760439 32768 0 0.42550450343025 8676.0017902401 2297.550780594
0	2397504 539143 68488 107158 4593.299167108787 7199.899168512648 18521 0 2 11705 14965
1	2936647 65939 0 107042 0 7191.999166666667 2841 0 1 1420 1420
2	3002586 64627 0 107064 0 7193.199166666667 2789 0 1 1394 1394
3	3067213 62937 0 107131 0 7198.499166666667 2713 0 1 1356 1356
4	3130150 63811 0 107120 0 7197.299166666667 2749 0 1 1374 1374
5	3193961 64245 0 107156 0 7199.899166666667 2769 0 1 1384 1384
6	3258206 63700 0 107135 0 7198.599166666667 2743 0 1 1371 1371
7	3321906 64951 0 107146 0 7198.899166666667 2797 0 1 1398 1398
8	3386857 64990 0 107157 0 7199.899166666667 2799 0 1 1399 1399
9	3451847 66078 0 107141 0 7198.699166666667 2843 0 1 1421 1421
10	3517925 67171 0 107126 0 7197.699166666667 2775 0 1 1387 1387
11	3585096 68189 0 107104 0 7196.499166666667 2815 0 1 1407 1407
12	3653285 65598 0 107106 0 7196.499166666667 2715 0 1 1357 1357
13	3718883 66844 0 107088 0 7194.699166666667 2761 0 1 1380 1380
14	3785727 69285 0 107017 0 7189.899166666667 2863 0 1 1431 1431
15	3855012 66993 0 107092 0 7195.499166666667 2767 0 1 1383 1383
16	3922005 67048 0 107127 0 7197.699166666667 2769 0 1 1384 1384
17	3989053 67945 0 107114 0 7197.199166666667 2809 0 1 1404 1404
18	4056998 69599 0 107142 0 7198.699166666667 2879 0 1 1439 1439
19	4126597 68157 0 106940 0 7186.799166666667 2815 0 1 1407 1407
20	4194754 69705 0 107150 0 7199.299166666667 2879 0 1 1439 1439
21	4264459 259710 91436 107151 6125.400003057317 7199.299168201519 5736 0.26502824673849 0.26556151013151 1521.7108794428 403.69672913639

