file 4231549 1712096131                                         
version 3
run AlohaPuro-9-20240403-00:15:26-26700
attr configname AlohaPuro
attr datetime 20240403-00:15:26
attr datetimef 20240403-001526
attr experiment AlohaPuro
attr inifile omnetpp.ini
attr iterationvars "$iaMean=5, $numHosts=20"
attr iterationvarsd iaMean=5/numHosts=20
attr iterationvarsf iaMean=5,numHosts=20-
attr measurement "$iaMean=5, $numHosts=20"
attr network Aloha
attr processid 26700
attr repetition 0
attr replication #0
attr resultdir results
attr runnumber 9
attr seedset 9
itervar iaMean 5
itervar numHosts 20
config description "pure Aloha, overloaded"
config Aloha.host[*].iaTime exponential(5s)
config Aloha.numHosts 20
config repeat 1
config sim-time-limit 2h
config network Aloha
config Aloha.numHosts 20
config Aloha.slotTime 0s
config Aloha.txRate 9.6kbps
config Aloha.host[*].pkLenBits 952b
config **.x "uniform(0m, 1000m)"
config **.y "uniform(0m, 1000m)"
config **.animationHoldTimeOnCollision 0s
config **.idleAnimationSpeed 1
config **.transmissionEdgeAnimationSpeed 1e-6
config **.midTransmissionAnimationSpeed 1e-1
config sim-time-limit 1000s
config repeat 3
config Aloha.host[*].iaTime exponential(2s)

vector 0 Aloha.server serverChannelState:vector ETV
attr enum IDLE=0,TRANSMISSION=1,COLLISION=2
attr recordingmode vector
attr source channelState
attr title "Channel state"
vector 1 Aloha.host[0] radioState:vector ETV
attr enum IDLE=0,TRANSMIT=1
attr recordingmode vector
attr source state
attr title "Radio state"
vector 2 Aloha.host[1] radioState:vector ETV
attr enum IDLE=0,TRANSMIT=1
attr recordingmode vector
attr source state
attr title "Radio state"
vector 3 Aloha.host[2] radioState:vector ETV
attr enum IDLE=0,TRANSMIT=1
attr recordingmode vector
attr source state
attr title "Radio state"
vector 4 Aloha.host[3] radioState:vector ETV
attr enum IDLE=0,TRANSMIT=1
attr recordingmode vector
attr source state
attr title "Radio state"
vector 5 Aloha.host[4] radioState:vector ETV
attr enum IDLE=0,TRANSMIT=1
attr recordingmode vector
attr source state
attr title "Radio state"
vector 6 Aloha.host[5] radioState:vector ETV
attr enum IDLE=0,TRANSMIT=1
attr recordingmode vector
attr source state
attr title "Radio state"
vector 7 Aloha.host[6] radioState:vector ETV
attr enum IDLE=0,TRANSMIT=1
attr recordingmode vector
attr source state
attr title "Radio state"
vector 8 Aloha.host[7] radioState:vector ETV
attr enum IDLE=0,TRANSMIT=1
attr recordingmode vector
attr source state
attr title "Radio state"
vector 9 Aloha.host[8] radioState:vector ETV
attr enum IDLE=0,TRANSMIT=1
attr recordingmode vector
attr source state
attr title "Radio state"
vector 10 Aloha.host[9] radioState:vector ETV
attr enum IDLE=0,TRANSMIT=1
attr recordingmode vector
attr source state
attr title "Radio state"
vector 11 Aloha.host[10] radioState:vector ETV
attr enum IDLE=0,TRANSMIT=1
attr recordingmode vector
attr source state
attr title "Radio state"
vector 12 Aloha.host[11] radioState:vector ETV
attr enum IDLE=0,TRANSMIT=1
attr recordingmode vector
attr source state
attr title "Radio state"
vector 13 Aloha.host[12] radioState:vector ETV
attr enum IDLE=0,TRANSMIT=1
attr recordingmode vector
attr source state
attr title "Radio state"
vector 14 Aloha.host[13] radioState:vector ETV
attr enum IDLE=0,TRANSMIT=1
attr recordingmode vector
attr source state
attr title "Radio state"
vector 15 Aloha.host[14] radioState:vector ETV
attr enum IDLE=0,TRANSMIT=1
attr recordingmode vector
attr source state
attr title "Radio state"
vector 16 Aloha.host[15] radioState:vector ETV
attr enum IDLE=0,TRANSMIT=1
attr recordingmode vector
attr source state
attr title "Radio state"
vector 17 Aloha.host[16] radioState:vector ETV
attr enum IDLE=0,TRANSMIT=1
attr recordingmode vector
attr source state
attr title "Radio state"
vector 18 Aloha.host[17] radioState:vector ETV
attr enum IDLE=0,TRANSMIT=1
attr recordingmode vector
attr source state
attr title "Radio state"
vector 19 Aloha.host[18] radioState:vector ETV
attr enum IDLE=0,TRANSMIT=1
attr recordingmode vector
attr source state
attr title "Radio state"
vector 20 Aloha.host[19] radioState:vector ETV
attr enum IDLE=0,TRANSMIT=1
attr recordingmode vector
attr source state
attr title "Radio state"
vector 21 Aloha.server channelUtilizationVEC:vector ETV
attr interpolationmode linear
attr recordingmode vector
attr source timeavg(receive)
attr title "Utilización del Canal"
0	4501 934084 0 71448 0 4926.880155157236 32768 0 2 25255 37083
0	938585 436194 71450 104243 4926.979321823903 7199.750765475414 15034 0 2 11607 17061
1	1374779 80689 0 104219 0 7198.145121047184 2815 0 1 1407 1407
2	1455468 81080 0 104213 0 7197.7808644729 2829 0 1 1414 1414
3	1536548 80125 0 104127 0 7191.007491428921 2795 0 1 1397 1397
4	1616673 81078 0 104242 0 7199.750764224423 2825 0 1 1412 1412
5	1697751 79959 0 104169 0 7195.026563540066 2787 0 1 1393 1393
6	1777710 82962 0 104183 0 7196.297701685614 2895 0 1 1447 1447
7	1860672 79652 0 104215 0 7197.878546644237 2779 0 1 1389 1389
8	1940324 81568 0 104165 0 7194.374473036652 2849 0 1 1424 1424
9	2021892 82008 0 104178 0 7195.281039039747 2859 0 1 1429 1429
10	2103900 84118 0 104238 0 7199.339114493617 2835 0 1 1417 1417
11	2188018 84339 0 104003 0 7184.358521253613 2843 0 1 1421 1421
12	2272357 81818 0 104226 0 7198.398880218341 2759 0 1 1379 1379
13	2354175 85231 0 104214 0 7197.830192869444 2875 0 1 1437 1437
14	2439406 83787 0 104077 0 7188.397161699456 2829 0 1 1414 1414
15	2523193 82623 0 104145 0 7192.497258278174 2787 0 1 1393 1393
16	2605816 84651 0 104230 0 7198.594241572155 2857 0 1 1428 1428
17	2690467 80607 0 104150 0 7193.134406473234 2715 0 1 1357 1357
18	2771074 88356 0 104234 0 7198.852292623392 2979 0 1 1489 1489
19	2859430 83480 0 104225 0 7198.373630761052 2813 0 1 1406 1406
20	2942910 81085 0 104062 0 7187.740839012971 2737 0 1 1368 1368
21	3023995 1207552 11 104243 0.551633926335 7199.750765475414 27104 0 0.23344199618328 5082.4488203898 953.3984438901

