file 6014071 1712096276                                         
version 3
run AlohaRanurado-6-20240403-00:17:52-28592
attr configname AlohaRanurado
attr datetime 20240403-00:17:52
attr datetimef 20240403-001752
attr experiment AlohaRanurado
attr inifile omnetpp.ini
attr iterationvars "$iaMean=3.5, $numHosts=20"
attr iterationvarsd iaMean=3.5/numHosts=20
attr iterationvarsf iaMean=3.5,numHosts=20-
attr measurement "$iaMean=3.5, $numHosts=20"
attr network Aloha
attr processid 28592
attr repetition 0
attr replication #0
attr resultdir results
attr runnumber 6
attr seedset 6
itervar iaMean 3.5
itervar numHosts 20
config description "slotted Aloha, overloaded"
config Aloha.slotTime 100ms
config Aloha.host[*].iaTime exponential(3.5s)
config Aloha.numHosts 20
config repeat 1
config sim-time-limit 2h
config network Aloha
config Aloha.numHosts 20
config Aloha.slotTime 0s
config Aloha.txRate 9.6kbps
config Aloha.host[*].pkLenBits 952b
config **.x "uniform(0m, 1000m)"
config **.y "uniform(0m, 1000m)"
config **.animationHoldTimeOnCollision 0s
config **.idleAnimationSpeed 1
config **.transmissionEdgeAnimationSpeed 1e-6
config **.midTransmissionAnimationSpeed 1e-1
config sim-time-limit 1000s
config repeat 3
config Aloha.host[*].iaTime exponential(2s)

vector 0 Aloha.server serverChannelState:vector ETV
attr enum IDLE=0,TRANSMISSION=1,COLLISION=2
attr recordingmode vector
attr source channelState
attr title "Channel state"
vector 1 Aloha.host[0] radioState:vector ETV
attr enum IDLE=0,TRANSMIT=1
attr recordingmode vector
attr source state
attr title "Radio state"
vector 2 Aloha.host[1] radioState:vector ETV
attr enum IDLE=0,TRANSMIT=1
attr recordingmode vector
attr source state
attr title "Radio state"
vector 3 Aloha.host[2] radioState:vector ETV
attr enum IDLE=0,TRANSMIT=1
attr recordingmode vector
attr source state
attr title "Radio state"
vector 4 Aloha.host[3] radioState:vector ETV
attr enum IDLE=0,TRANSMIT=1
attr recordingmode vector
attr source state
attr title "Radio state"
vector 5 Aloha.host[4] radioState:vector ETV
attr enum IDLE=0,TRANSMIT=1
attr recordingmode vector
attr source state
attr title "Radio state"
vector 6 Aloha.host[5] radioState:vector ETV
attr enum IDLE=0,TRANSMIT=1
attr recordingmode vector
attr source state
attr title "Radio state"
vector 7 Aloha.host[6] radioState:vector ETV
attr enum IDLE=0,TRANSMIT=1
attr recordingmode vector
attr source state
attr title "Radio state"
vector 8 Aloha.host[7] radioState:vector ETV
attr enum IDLE=0,TRANSMIT=1
attr recordingmode vector
attr source state
attr title "Radio state"
vector 9 Aloha.host[8] radioState:vector ETV
attr enum IDLE=0,TRANSMIT=1
attr recordingmode vector
attr source state
attr title "Radio state"
vector 10 Aloha.host[9] radioState:vector ETV
attr enum IDLE=0,TRANSMIT=1
attr recordingmode vector
attr source state
attr title "Radio state"
vector 11 Aloha.host[10] radioState:vector ETV
attr enum IDLE=0,TRANSMIT=1
attr recordingmode vector
attr source state
attr title "Radio state"
vector 12 Aloha.host[11] radioState:vector ETV
attr enum IDLE=0,TRANSMIT=1
attr recordingmode vector
attr source state
attr title "Radio state"
vector 13 Aloha.host[12] radioState:vector ETV
attr enum IDLE=0,TRANSMIT=1
attr recordingmode vector
attr source state
attr title "Radio state"
vector 14 Aloha.host[13] radioState:vector ETV
attr enum IDLE=0,TRANSMIT=1
attr recordingmode vector
attr source state
attr title "Radio state"
vector 15 Aloha.host[14] radioState:vector ETV
attr enum IDLE=0,TRANSMIT=1
attr recordingmode vector
attr source state
attr title "Radio state"
vector 16 Aloha.host[15] radioState:vector ETV
attr enum IDLE=0,TRANSMIT=1
attr recordingmode vector
attr source state
attr title "Radio state"
vector 17 Aloha.host[16] radioState:vector ETV
attr enum IDLE=0,TRANSMIT=1
attr recordingmode vector
attr source state
attr title "Radio state"
vector 18 Aloha.host[17] radioState:vector ETV
attr enum IDLE=0,TRANSMIT=1
attr recordingmode vector
attr source state
attr title "Radio state"
vector 19 Aloha.host[18] radioState:vector ETV
attr enum IDLE=0,TRANSMIT=1
attr recordingmode vector
attr source state
attr title "Radio state"
vector 20 Aloha.host[19] radioState:vector ETV
attr enum IDLE=0,TRANSMIT=1
attr recordingmode vector
attr source state
attr title "Radio state"
vector 21 Aloha.server channelUtilizationVEC:vector ETV
attr interpolationmode linear
attr recordingmode vector
attr source timeavg(receive)
attr title "Utilización del Canal"
0	4557 932821 0 69615 0 3379.099167155994 32768 0 2 22505 30667
21	937378 1460219 4 105617 0.400002671177 5119.299167009888 32768 0 0.42550475656896 10481.810307646 3353.7416224443
0	2397597 967231 69617 139371 3379.600000489327 6739.000003092148 32768 0 2 22716 31158
0	3364828 136462 139374 149081 6739.099169758815 7199.699169758815 4556 0 2 3173 4367
1	3501290 94043 0 149080 0 7199.699166666667 3997 0 1 1998 1998
2	3595333 91597 0 148943 0 7194.099166666667 3899 0 1 1949 1949
3	3686930 91856 0 149055 0 7198.799166666667 3907 0 1 1953 1953
4	3778786 92360 0 149072 0 7199.499166666667 3931 0 1 1965 1965
5	3871146 93162 0 149037 0 7197.999166666667 3967 0 1 1983 1983
6	3964308 96009 0 148825 0 7189.399166666667 4087 0 1 2043 2043
7	4060317 93792 0 149041 0 7198.199166666667 3987 0 1 1993 1993
8	4154109 92807 0 149006 0 7196.699166666667 3949 0 1 1974 1974
9	4246916 94282 0 148966 0 7194.699166666667 4013 0 1 2006 2006
10	4341198 97131 0 149033 0 7197.899166666667 3963 0 1 1981 1981
11	4438329 96145 0 149076 0 7199.599166666667 3927 0 1 1963 1963
12	4534474 96363 0 149056 0 7198.799166666667 3929 0 1 1964 1964
13	4630837 98264 0 148995 0 7196.299166666667 4009 0 1 2004 2004
14	4729101 98519 0 149082 0 7200 4024 0 1 2012 2012
15	4827620 97081 0 149068 0 7199.199166666667 3971 0 1 1985 1985
16	4924701 97742 0 148695 0 7183.099166666667 3989 0 1 1994 1994
17	5022443 95600 0 149010 0 7196.799166666667 3901 0 1 1950 1950
18	5118043 93449 0 148929 0 7193.599166666667 3813 0 1 1906 1906
19	5211492 95756 0 149045 0 7198.499166666667 3909 0 1 1954 1954
20	5307248 94157 0 148944 0 7194.099166666667 3839 0 1 1919 1919
21	5401405 612664 105621 149081 5119.300001648296 7199.699169758815 13366 0.31676103526462 0.31823122275518 4246.6176077499 1349.2273891621

