version 3
run PureAloha1-0-20240320-19:23:26-22860
attr configname PureAloha1
attr datetime 20240320-19:23:26
attr datetimef 20240320-192326
attr experiment PureAloha1
attr inifile omnetpp.ini
attr iterationvars ""
attr iterationvarsd ""
attr iterationvarsf ""
attr measurement ""
attr network Aloha
attr processid 22860
attr repetition 0
attr replication #0
attr resultdir results
attr runnumber 0
attr seedset 0
config description "pure Aloha, overloaded"
config Aloha.host[*].iaTime exponential(2s)
config network Aloha
config Aloha.numHosts 20
config Aloha.slotTime 0s
config Aloha.txRate 9.6kbps
config Aloha.host[*].pkLenBits 952b
config **.x "uniform(0m, 1000m)"
config **.y "uniform(0m, 1000m)"
config **.animationHoldTimeOnCollision 0s
config **.idleAnimationSpeed 1
config **.transmissionEdgeAnimationSpeed 1e-6
config **.midTransmissionAnimationSpeed 1e-1
config sim-time-limit 60min

vector 0 Aloha.server serverChannelState:vector ETV
attr enum IDLE=0,TRANSMISSION=1,COLLISION=2
attr recordingmode vector
attr source channelState
attr title "Channel state"
vector 1 Aloha.host[0] radioState:vector ETV
attr enum IDLE=0,TRANSMIT=1
attr recordingmode vector
attr source state
attr title "Radio state"
vector 2 Aloha.host[1] radioState:vector ETV
attr enum IDLE=0,TRANSMIT=1
attr recordingmode vector
attr source state
attr title "Radio state"
vector 3 Aloha.host[2] radioState:vector ETV
attr enum IDLE=0,TRANSMIT=1
attr recordingmode vector
attr source state
attr title "Radio state"
vector 4 Aloha.host[3] radioState:vector ETV
attr enum IDLE=0,TRANSMIT=1
attr recordingmode vector
attr source state
attr title "Radio state"
vector 5 Aloha.host[4] radioState:vector ETV
attr enum IDLE=0,TRANSMIT=1
attr recordingmode vector
attr source state
attr title "Radio state"
vector 6 Aloha.host[5] radioState:vector ETV
attr enum IDLE=0,TRANSMIT=1
attr recordingmode vector
attr source state
attr title "Radio state"
vector 7 Aloha.host[6] radioState:vector ETV
attr enum IDLE=0,TRANSMIT=1
attr recordingmode vector
attr source state
attr title "Radio state"
vector 8 Aloha.host[7] radioState:vector ETV
attr enum IDLE=0,TRANSMIT=1
attr recordingmode vector
attr source state
attr title "Radio state"
vector 9 Aloha.host[8] radioState:vector ETV
attr enum IDLE=0,TRANSMIT=1
attr recordingmode vector
attr source state
attr title "Radio state"
vector 10 Aloha.host[9] radioState:vector ETV
attr enum IDLE=0,TRANSMIT=1
attr recordingmode vector
attr source state
attr title "Radio state"
vector 11 Aloha.host[10] radioState:vector ETV
attr enum IDLE=0,TRANSMIT=1
attr recordingmode vector
attr source state
attr title "Radio state"
vector 12 Aloha.host[11] radioState:vector ETV
attr enum IDLE=0,TRANSMIT=1
attr recordingmode vector
attr source state
attr title "Radio state"
vector 13 Aloha.host[12] radioState:vector ETV
attr enum IDLE=0,TRANSMIT=1
attr recordingmode vector
attr source state
attr title "Radio state"
vector 14 Aloha.host[13] radioState:vector ETV
attr enum IDLE=0,TRANSMIT=1
attr recordingmode vector
attr source state
attr title "Radio state"
vector 15 Aloha.host[14] radioState:vector ETV
attr enum IDLE=0,TRANSMIT=1
attr recordingmode vector
attr source state
attr title "Radio state"
vector 16 Aloha.host[15] radioState:vector ETV
attr enum IDLE=0,TRANSMIT=1
attr recordingmode vector
attr source state
attr title "Radio state"
vector 17 Aloha.host[16] radioState:vector ETV
attr enum IDLE=0,TRANSMIT=1
attr recordingmode vector
attr source state
attr title "Radio state"
vector 18 Aloha.host[17] radioState:vector ETV
attr enum IDLE=0,TRANSMIT=1
attr recordingmode vector
attr source state
attr title "Radio state"
vector 19 Aloha.host[18] radioState:vector ETV
attr enum IDLE=0,TRANSMIT=1
attr recordingmode vector
attr source state
attr title "Radio state"
vector 20 Aloha.host[19] radioState:vector ETV
attr enum IDLE=0,TRANSMIT=1
attr recordingmode vector
attr source state
attr title "Radio state"
0	0	0	0
1	0	0	0
2	0	0	0
3	0	0	0
4	0	0	0
5	0	0	0
6	0	0	0
7	0	0	0
8	0	0	0
9	0	0	0
10	0	0	0
11	0	0	0
12	0	0	0
13	0	0	0
14	0	0	0
15	0	0	0
16	0	0	0
16	1	0.223892321265	1
17	0	0	0
18	0	0	0
19	0	0	0
20	0	0	0
0	2	0.223894237036	1
7	3	0.251748818876	1
0	4	0.251750941818	2
11	5	0.309459361	1
0	6	0.309459743303	2
16	7	0.323058987932	0
7	8	0.350915485543	0
11	9	0.408626027667	0
0	10	0.40862640997	0
20	11	0.412406564061	1
0	12	0.412408051882	1
20	13	0.511573230728	0
vector 21 Aloha.server channelUtilization:vector ETV
attr interpolationmode linear
attr recordingmode vector
attr source timeavg(receive)
attr title "Utilización del Canal"
0	14	0.511574718549	0
21	14	0.412408051882	0
21	14	0.511574718549	0.19384590964204
19	15	0.614560704305	1
0	16	0.614562119624	1
19	17	0.713727370972	0
0	18	0.713728786291	0
21	18	0.614562119624	0.16136150195471
21	18	0.713728786291	0.27788333207726
0	20	0.999671700022	1
0	22	1.071132980887	2
0	25	1.170299647554	0
0	27	1.208236785956	1
0	29	1.237859767965	2
0	31	1.283391096219	2
0	35	1.382557762886	0
0	37	1.389394421273	1
0	39	1.469929272256	2
0	41	1.475656134543	2
0	44	1.541669987339	2
0	48	1.626791256336	2
0	51	1.706830741778	2
0	54	1.744643481757	2
0	57	1.843810148424	0
0	59	2.042864420929	1
0	61	2.071979803073	2
0	63	2.090945073976	2
0	67	2.190111740643	0
0	69	2.271878936021	1
0	71	2.371045602688	0
0	73	2.394398197515	1
0	75	2.493564864182	0
0	77	2.550457152464	1
0	79	2.617950752622	2
0	82	2.717117419289	0
0	84	2.842731167369	1
0	86	2.926239870839	2
0	89	3.021497977733	2
0	92	3.033072715043	2
0	94	3.062183459842	2
0	96	3.066128414969	2
0	101	3.165295081636	0
0	103	3.21048011977	1
0	105	3.228005052192	2
0	107	3.259788312764	2
0	109	3.299570555206	2
0	113	3.337523241233	2
0	116	3.38255444229	2
0	120	3.481721108957	0
0	122	3.493918755946	1
0	124	3.52011041617	2
0	126	3.540147213672	2
0	130	3.635012356288	2
0	133	3.734179022955	0
0	135	3.782060198602	1
0	137	3.812545335781	2
0	140	3.911712002448	0
0	142	4.089100907636	1
0	144	4.134088057824	2
0	147	4.194613836465	2
0	149	4.2139797761	2
0	153	4.313146442767	0
0	155	4.405502197445	1
0	157	4.497289543062	2
0	160	4.509050719444	2
0	163	4.608217386111	0
0	165	4.960044476962	1
0	167	4.973271901663	2
0	169	5.035875486882	2
0	171	5.041839418045	2
0	176	5.141006084712	0
0	178	5.249907644685	1
0	180	5.318489579502	2
0	182	5.328169467394	2
0	185	5.3538442285	2
0	187	5.382545017883	2
0	192	5.48171168455	0
0	194	5.725167151246	1
0	196	5.78884245192	2
0	199	5.888009118587	0
0	201	5.923454012781	1
0	203	6.013564912125	2
0	206	6.112731578792	0
0	208	6.170588730205	1
0	210	6.176822601455	2
0	212	6.256531499033	2
0	216	6.3556981657	0
0	218	6.419203665519	1
0	220	6.428799269471	2
0	222	6.463824156873	2
0	226	6.56299082354	0
0	228	6.612494700569	1
0	230	6.653122704204	2
0	232	6.673539408151	2
0	235	6.713011578432	2
0	237	6.714898137266	2
0	242	6.814064803933	0
0	244	6.839507401961	1
0	246	6.8788738608	2
0	249	6.965727129153	2
0	252	7.018354566983	2
0	254	7.03910095487	2
0	258	7.138267621537	0
0	260	7.146266987571	1
0	262	7.189923998518	2
0	265	7.289090665185	0
0	267	7.319590784268	1
0	269	7.418757450935	0
0	271	7.435439832691	1
0	273	7.481787965558	2
0	276	7.580954632225	0
0	278	7.631689282717	1
0	280	7.730855949384	0
0	282	7.845509802232	1
0	284	7.944676468899	0
0	286	8.359068181859	1
0	288	8.405899791171	2
0	291	8.505066457838	0
0	293	8.683430643727	1
0	295	8.782597310394	0
0	297	8.822977566686	1
0	299	8.888877936941	2
0	302	8.924828132628	2
0	304	8.959773686024	2
0	307	9.00209683147	2
0	311	9.101263498137	0
0	313	9.304522527328	1
0	315	9.357377028759	2
0	318	9.456543695426	0
0	320	9.531640998731	1
0	322	9.630807665398	0
0	324	9.658128621808	1
0	326	9.688815281222	2
0	329	9.787981947889	0
0	331	9.801633462702	1
0	333	9.900800129369	0
0	335	10.010072561326	1
0	337	10.025833906415	2
0	340	10.125000573082	0
0	342	10.153801381342	1
0	344	10.158895874189	2
0	346	10.213369390251	2
0	350	10.294528117835	2
0	353	10.39065734382	2
0	356	10.489824010487	0
0	358	10.617678366036	1
0	360	10.619148008598	2
0	362	10.666202027093	2
0	366	10.76536869376	0
0	368	10.801326953082	1
0	370	10.900493619749	0
0	372	10.942100234125	1
0	374	11.041266900792	0
0	376	11.193557002143	1
0	378	11.194769324596	2
0	381	11.293935991263	0
0	383	11.382198373956	1
0	385	11.481365040623	0
0	387	11.4912366081	1
0	389	11.499733266769	2
0	392	11.598899933436	0
0	394	11.772440898115	1
0	396	11.871607564782	0
0	398	12.121729000986	1
0	400	12.155511042619	2
0	403	12.254677709286	0
0	405	12.322989494183	1
0	407	12.389040096644	2
0	410	12.440957662178	2
0	413	12.522784801686	2
0	415	12.537370607244	2
0	419	12.636537273911	0
0	421	12.752073838632	1
0	423	12.851240505299	0
0	425	12.871576498711	1
0	427	12.904612895475	2
0	430	13.003779562142	0
0	432	13.021798137483	1
0	434	13.097261266655	2
0	437	13.196427933322	0
0	439	13.306194556915	1
0	441	13.405361223582	0
0	443	13.601128810456	1
0	445	13.687087896194	2
0	448	13.736000251675	2
0	451	13.835166918342	0
0	453	13.875791835933	1
0	455	13.9749585026	0
0	457	14.285444366226	1
0	459	14.33546300657	2
0	461	14.357713621996	2
0	464	14.419761470095	2
0	468	14.466293369648	2
0	471	14.565460036315	0
0	473	14.689898583493	1
0	475	14.72009858227	2
0	477	14.724795720279	2
0	479	14.743496573407	2
0	484	14.835611149223	2
0	487	14.93477781589	0
0	489	15.104809201233	1
0	491	15.2039758679	0
0	493	15.260791614179	1
0	495	15.358091465326	2
0	498	15.371108125517	2
0	500	15.395849362464	2
0	502	15.448708570646	2
0	505	15.466553561042	2
0	510	15.565720227709	0
0	512	15.61547129236	1
0	514	15.714637959027	0
0	516	15.779411844115	1
0	518	15.878578510782	0
0	520	16.029300077009	1
0	522	16.128466743676	0
0	524	16.234779630849	1
0	526	16.263888382764	2
0	529	16.363055049431	0
0	531	16.475231314457	1
0	533	16.495766587807	2
0	535	16.556562850489	2
0	537	16.56197405654	2
0	541	16.653308108352	2
0	545	16.752474775019	0
0	547	16.83072832026	1
0	549	16.838786283298	2
0	551	16.842080598382	2
0	555	16.941247265049	0
0	557	17.170119422135	1
0	559	17.188300559773	2
0	561	17.211801964789	2
0	563	17.256979693819	2
0	568	17.356146360486	0
0	570	17.358901969281	1
0	572	17.458068635948	0
0	574	17.500178987575	1
0	576	17.577020133911	2
0	579	17.676186800578	0
0	581	17.84097757206	1
0	583	17.853899511866	2
0	585	17.916093177719	2
0	589	17.97532635535	2
0	592	18.074493022017	0
0	594	18.165784203714	1
0	596	18.264950870381	0
0	598	18.292323610773	1
0	600	18.39149027744	0
0	602	18.417591353719	1
0	604	18.468106131457	2
0	606	18.514965190867	2
0	610	18.614131857534	0
0	612	18.7667375292	1
0	614	18.865904195867	0
0	616	18.87414918154	1
0	618	18.973315848207	0
0	620	19.342430084458	1
0	622	19.441596751125	0
0	624	19.694137831186	1
0	626	19.793304497853	0
0	628	19.849909687929	1
0	630	19.949076354596	0
0	632	20.201104343568	1
0	634	20.242105110749	2
0	636	20.257503117668	2
0	638	20.292480841259	2
0	641	20.317418981204	2
0	646	20.416585647871	0
0	648	20.497051390799	1
0	650	20.499394534733	2
0	653	20.5985612014	0
0	655	20.634977620162	1
0	657	20.672813040548	2
0	660	20.750256144729	2
0	662	20.769801625807	2
0	665	20.806068846379	2
0	669	20.905235513046	0
0	671	21.151091335725	1
0	673	21.250258002392	0
0	675	21.304892606757	1
0	677	21.404059273424	0
0	679	21.444063757684	1
0	681	21.451998718569	2
0	684	21.548297757639	2
0	687	21.590434762442	2
0	690	21.689601429109	0
0	692	21.704795064516	1
0	694	21.75426222333	2
0	697	21.853428889997	0
0	699	21.868816632662	1
0	701	21.935185592714	2
0	704	21.980749386005	2
0	706	22.014670375887	2
0	708	22.021055928173	2
0	713	22.12022259484	0
0	715	22.161828808483	1
0	717	22.217529375571	2
0	719	22.256453268739	2
0	722	22.285576915323	2
0	725	22.344153921983	2
0	729	22.385102878954	2
0	732	22.484269545621	0
0	734	22.561877154488	1
0	736	22.661043821155	0
0	738	22.671087525384	1
0	740	22.678961294893	2
0	743	22.77812796156	0
0	745	22.95397208022	1
0	747	23.008063208707	2
0	750	23.107229875374	0
0	752	23.258529729919	1
0	754	23.270417182006	2
0	756	23.290066741743	2
0	758	23.328809384966	2
0	761	23.357725997396	2
0	766	23.456892664063	0
0	768	23.562337626291	1
0	770	23.661504292958	0
0	772	23.722129204563	1
0	774	23.725326566357	2
0	776	23.790264823397	2
0	780	23.889431490064	0
0	782	23.901295199165	1
0	784	23.969154946436	2
0	787	24.02357564329	2
0	789	24.06002449051	2
0	793	24.159191157177	0
0	795	24.21168715309	1
0	797	24.278085284304	2
0	799	24.309188837425	2
0	803	24.408355504092	0
0	805	24.473638706168	1
0	807	24.51450695153	2
0	809	24.555019805969	2
0	813	24.615908153414	2
0	816	24.715074820081	0
0	818	24.937413791622	1
0	820	24.993691776483	2
0	822	25.027882469065	2
0	825	25.077578486712	2
0	828	25.113146284059	2
0	832	25.212312950726	0
0	834	25.361449590323	1
0	836	25.44750959344	2
0	839	25.546676260107	0
0	841	25.577390154491	1
0	843	25.644177186416	2
0	846	25.692533466441	2
0	848	25.724983676219	2
0	852	25.824150342886	0
0	854	25.862359634207	1
0	856	25.961526300874	0
0	858	26.258532223699	1
0	860	26.357698890366	0
0	862	26.54688499018	1
0	864	26.646051656847	0
0	866	26.659280910754	1
0	868	26.758447577421	0
0	870	26.81606886958	1
0	872	26.826021148525	2
0	874	26.884156099159	2
0	878	26.943299448812	2
0	881	27.042466115479	0
0	883	27.058586304873	1
0	885	27.088678001224	2
0	888	27.187844667891	0
0	890	27.315395946945	1
0	892	27.414562613612	0
0	894	27.645288224338	1
0	896	27.691791717024	2
0	899	27.790958383691	0
0	901	27.848279995371	1
0	903	27.877805366084	2
0	906	27.976972032751	0
0	908	27.977011248299	1
0	910	28.076177914966	0
0	912	28.10971344695	1
0	914	28.208880113617	0
0	916	28.25227094299	1
0	918	28.27755892418	2
0	921	28.366351115235	2
0	924	28.400292054684	2
0	927	28.499458721351	0
0	929	28.566323171326	1
0	931	28.665489837993	0
0	933	28.766892454288	1
0	935	28.857270351621	2
0	938	28.876096227989	2
0	941	28.975262894656	0
0	943	29.085138335762	1
0	945	29.161306570124	2
0	948	29.260473236791	0
0	950	29.329814540555	1
0	952	29.351852845094	2
0	954	29.354541052137	2
0	956	29.37419989839	2
0	958	29.391964362389	2
0	961	29.44441459433	2
0	967	29.543581260997	0
0	969	29.562759617538	1
0	971	29.580972201839	2
0	974	29.680138868506	0
0	976	29.747316844135	1
0	978	29.846483510802	0
0	980	29.886790043974	1
0	982	29.919644981259	2
0	984	29.975231021237	2
0	987	30.013530087747	2
0	990	30.03696418661	2
0	994	30.136130853277	0
0	996	30.281665564149	1
0	998	30.380832230816	0
0	1000	30.492968120928	1
0	1002	30.592134787595	0
0	1004	30.732735436764	1
0	1006	30.773902240889	2
0	1009	30.873068907556	0
0	1011	30.921711890617	1
0	1013	30.937782516847	2
0	1016	31.036949183514	0
0	1018	31.091678198759	1
0	1020	31.190844865426	0
0	1022	31.361105945879	1
0	1024	31.396863866618	2
0	1027	31.484655849001	2
0	1030	31.583822515668	0
0	1032	31.599396344876	1
0	1034	31.664852929431	2
0	1037	31.72901972233	2
0	1040	31.816503856103	2
0	1043	31.91567052277	0
0	1045	32.082034588599	1
0	1047	32.181201255266	0
0	1049	32.255109666263	1
0	1051	32.307355736783	2
0	1054	32.40652240345	0
0	1056	32.577244404501	1
0	1058	32.64783015808	2
0	1061	32.746996824747	0
0	1063	32.803136865206	1
0	1065	32.836964312718	2
0	1068	32.936130979385	0
0	1070	33.029728394282	1
0	1072	33.128895060949	0
0	1074	33.305669789029	1
0	1076	33.403236928736	2
0	1079	33.502403595403	0
0	1081	34.082541009819	1
0	1083	34.100504824627	2
0	1085	34.170873768812	2
0	1089	34.210570380313	2
0	1091	34.250176587209	2
0	1093	34.257935748014	2
0	1098	34.357102414681	0
0	1100	34.434713342198	1
0	1102	34.533880008865	0
0	1104	34.679715393964	1
0	1106	34.685060685693	2
0	1108	34.747546181175	2
0	1110	34.769166511647	2
0	1113	34.780786193817	2
0	1117	34.852540480102	2
0	1121	34.951707146769	0
0	1123	35.024881492801	1
0	1125	35.027598546463	2
0	1128	35.12676521313	0
0	1130	35.215401736667	1
0	1132	35.314568403334	0
0	1134	35.396893216559	1
0	1136	35.400568578375	2
0	1139	35.499735245042	0
0	1141	35.619297170873	1
0	1143	35.640073687348	2
0	1145	35.674368463216	2
0	1147	35.715485106936	2
0	1151	35.748465803672	2
0	1154	35.797667783285	2
0	1157	35.834608561772	2
0	1160	35.881785331228	2
0	1163	35.901583707181	2
0	1167	36.000750373848	0
0	1169	36.071691151363	1
0	1171	36.17085781803	0
0	1173	36.228441999756	1
0	1175	36.327608666423	0
0	1177	36.470184903189	1
0	1179	36.561991362392	2
0	1181	36.566793288698	2
0	1184	36.619328276482	2
0	1188	36.718494943149	0
0	1190	36.741340759727	1
0	1192	36.805195297512	2
0	1195	36.879035484628	2
0	1198	36.929784578561	2
0	1201	37.028951245228	0
0	1203	37.111762577263	1
0	1205	37.21092924393	0
0	1207	37.358367034596	1
0	1209	37.409041018849	2
0	1212	37.508207685516	0
0	1214	37.53740771431	1
0	1216	37.636574380977	0
0	1218	37.891560108174	1
0	1220	37.92362951699	2
0	1222	37.939136543966	2
0	1226	38.038303210633	0
0	1228	38.187364587965	1
0	1230	38.206823428014	2
0	1232	38.280550657262	2
0	1236	38.379717323929	0
0	1238	38.527285254719	1
0	1240	38.626451921386	0
0	1242	38.749168846123	1
0	1244	38.84833551279	0
0	1246	39.115584437475	1
0	1248	39.143527578572	2
0	1251	39.237661725015	2
0	1254	39.256485541362	2
0	1256	39.289662337049	2
0	1258	39.290656222445	2
0	1260	39.325654366474	2
0	1266	39.424821033141	0
0	1268	39.44235839176	1
0	1270	39.504197082106	2
0	1273	39.603363748773	0
0	1275	39.763397068333	1
0	1277	39.862563735	0
0	1279	40.080705123404	1
0	1281	40.104972659402	2
0	1283	40.144980921159	2
0	1285	40.160204391806	2
0	1290	40.259371058473	0
0	1292	40.259481762263	1
0	1294	40.35864842893	0
0	1296	40.39209780812	1
0	1298	40.48179896191	2
0	1301	40.517878302819	2
0	1303	40.557033244429	2
0	1307	40.647709791375	2
0	1310	40.746876458042	0
0	1312	41.220114938323	1
0	1314	41.23879106242	2
0	1317	41.337957729087	0
0	1319	41.37836760574	1
0	1321	41.477534272407	0
0	1323	41.586452164984	1
0	1325	41.617225209405	2
0	1327	41.670874672405	2
0	1331	41.725386627582	2
0	1333	41.729977142461	2
0	1337	41.829143809128	0
0	1339	41.980664507842	1
0	1341	42.047887717084	2
0	1344	42.147054383751	0
0	1346	42.177595302852	1
0	1348	42.22715617362	2
0	1351	42.309990281593	2
0	1354	42.40915694826	0
0	1356	42.668334642504	1
0	1358	42.767501309171	0
0	1360	42.903708057069	1
0	1362	42.995059865233	2
0	1365	43.09104749857	2
0	1368	43.117553665603	2
0	1371	43.21672033227	0
0	1373	43.42716445609	1
0	1375	43.482721762609	2
0	1377	43.520360012214	2
0	1380	43.578326613143	2
0	1383	43.616073030433	2
0	1386	43.622778782979	2
0	1390	43.721945449646	0
0	1392	43.736158463739	1
0	1394	43.835325130406	0
0	1396	43.855638794776	1
0	1398	43.954805461443	0
0	1400	44.011242562275	1
0	1402	44.042618442923	2
0	1404	44.084576715651	2
0	1406	44.085510411971	2
0	1411	44.184677078638	0
0	1413	44.480290910692	1
0	1415	44.493097543456	2
0	1418	44.592264210123	0
0	1420	44.597393065848	1
0	1422	44.625624399132	2
0	1424	44.650669495715	2
0	1428	44.749836162382	0
0	1430	44.77267808236	1
0	1432	44.820916438404	2
0	1434	44.834175418271	2
0	1437	44.90177795545	2
0	1441	44.938469684746	2
0	1443	44.999901342229	2
0	1447	45.078403819791	2
0	1450	45.177570486458	0
0	1452	45.284228691707	1
0	1454	45.356067848472	2
0	1457	45.422159233097	2
0	1460	45.521325899764	0
0	1462	45.581740311911	1
0	1464	45.680906978578	0
0	1466	46.033216734606	1
0	1468	46.068589985173	2
0	1471	46.16775665184	0
0	1473	46.343890185967	1
0	1475	46.347028889425	2
0	1477	46.37713079054	2
0	1479	46.391955224877	2
0	1484	46.491121891544	0
0	1486	46.537300928669	1
0	1488	46.571816148171	2
0	1490	46.626245302254	2
0	1494	46.699308353301	2
0	1497	46.756008393403	2
0	1499	46.757803138089	2
0	1502	46.806744155249	2
0	1506	46.860327603089	2
0	1509	46.959494269756	0
0	1511	47.118765748123	1
0	1513	47.15382962649	2
0	1515	47.188082381056	2
0	1519	47.270031827588	2
0	1522	47.369198494255	0
0	1524	47.46146621424	1
0	1526	47.474150973403	2
0	1528	47.515378376322	2
0	1532	47.583903611594	2
0	1535	47.615569176821	2
0	1537	47.622693355871	2
0	1541	47.721860022538	0
0	1543	47.743392478442	1
0	1545	47.77644576555	2
0	1547	47.815378638929	2
0	1551	47.888416556445	2
0	1554	47.968791729356	2
0	1557	48.067958396023	0
0	1559	48.191171721051	1
0	1561	48.279332744232	2
0	1564	48.378499410899	0
0	1566	48.411631599742	1
0	1568	48.420564117291	2
0	1570	48.465601179673	2
0	1574	48.533598312526	2
0	1576	48.551921861906	2
0	1579	48.583333895096	2
0	1583	48.682500561763	0
0	1585	48.684638135069	1
0	1587	48.783804801736	0
0	1589	49.167416406241	1
0	1591	49.231831522796	2
0	1594	49.330998189463	0
0	1596	49.351433784457	1
0	1598	49.370975200426	2
0	1600	49.408417614731	2
0	1604	49.507584281398	0
0	1606	49.605655833597	1
0	1608	49.639768302785	2
0	1610	49.66783701325	2
0	1614	49.754284612925	2
0	1617	49.853451279592	0
0	1619	49.871026257264	1
0	1621	49.92840283526	2
0	1624	50.027569501927	0
0	1626	50.133080310865	1
0	1628	50.135831426557	2
0	1630	50.204570156664	2
0	1634	50.249420181489	2
0	1637	50.348586848156	0
0	1639	50.796568467757	1
0	1641	50.849584487621	2
0	1644	50.948751154288	0
0	1646	51.060457826678	1
0	1648	51.068550468555	2
0	1650	51.14131546048	2
0	1654	51.216361541038	2
0	1657	51.315528207705	0
0	1659	51.475905379958	1
0	1661	51.504135142849	2
0	1664	51.603301809516	0
0	1666	51.758157990716	1
0	1668	51.76237913618	2
0	1671	51.861545802847	0
0	1673	51.898916336105	1
0	1675	51.998083002772	0
0	1677	52.09747068807	1
0	1679	52.110293711663	2
0	1682	52.20946037833	0
0	1684	52.231067737535	1
0	1686	52.330234404202	0
0	1688	52.366683865751	1
0	1690	52.465850532418	0
0	1692	52.596086131257	1
0	1694	52.695252797924	0
0	1696	53.02374101178	1
0	1698	53.068216282241	2
0	1701	53.167382948908	0
0	1703	53.189009630657	1
0	1705	53.288176297324	0
0	1707	53.555100111635	1
0	1709	53.588329454026	2
0	1712	53.680917267959	2
0	1715	53.780083934626	0
0	1717	53.824847814999	1
0	1719	53.85247308958	2
0	1722	53.951639756247	0
0	1724	54.089546037766	1
0	1726	54.188712704433	0
0	1728	54.210682647174	1
0	1730	54.251728645134	2
0	1732	54.27230794522	2
0	1736	54.371474611887	0
0	1738	54.463843928834	1
0	1740	54.563010595501	0
0	1742	54.633155558699	1
0	1744	54.732322225366	0
0	1746	54.814219335652	1
0	1748	54.913386002319	0
0	1750	54.921498644961	1
0	1752	55.020665311628	0
0	1754	55.091406802088	1
0	1756	55.190573468755	0
0	1758	55.381402042111	1
0	1760	55.480568708778	0
0	1762	55.673069296605	1
0	1764	55.772235963272	0
0	1766	55.818569264882	1
0	1768	55.917735931549	0
0	1770	56.108209182288	1
0	1772	56.188713818382	2
0	1775	56.212186006175	2
0	1777	56.256661262624	2
0	1781	56.344160280937	2
0	1784	56.40015134433	2
0	1787	56.475456194117	2
0	1790	56.574622860784	0
0	1792	56.776894505699	1
0	1794	56.829170419876	2
0	1796	56.831783335336	2
0	1798	56.866428802525	2
0	1803	56.965595469192	0
0	1805	56.988808594456	1
0	1807	57.018545823368	2
0	1809	57.061039487538	2
0	1812	57.095746992862	2
0	1815	57.132118486167	2
0	1817	57.136886729441	2
0	1821	57.220850564083	2
0	1825	57.32001723075	0
0	1827	57.325391188937	1
0	1829	57.364361989422	2
0	1831	57.384083929066	2
0	1834	57.441498845768	2
0	1837	57.468756232863	2
0	1841	57.56792289953	0
0	1843	57.889512290873	1
0	1845	57.931408646984	2
0	1848	58.007753111361	2
0	1851	58.036900255627	2
0	1854	58.136066922294	0
0	1856	58.157837941064	1
0	1858	58.257004607731	0
0	1860	58.35103127712	1
0	1862	58.373549274546	2
0	1865	58.472715941213	0
0	1867	58.484481014148	1
0	1869	58.583647680815	0
0	1871	58.587904567229	1
0	1873	58.687071233896	0
0	1875	58.749163123903	1
0	1877	58.756966963998	2
0	1879	58.785545536002	2
0	1881	58.796885978998	2
0	1883	58.80198509571	2
0	1889	58.901151762377	0
0	1891	58.912805385154	1
0	1893	58.919039146082	2
0	1896	59.018205812749	0
0	1898	59.15285508534	1
0	1900	59.252021752007	0
0	1902	59.37065250306	1
0	1904	59.469819169727	0
0	1906	59.569888111319	1
0	1908	59.669054777986	0
0	1910	59.741147244533	1
0	1912	59.744690250553	2
0	1914	59.834779323823	2
0	1918	59.93394599049	0
0	1920	60.031606011785	1
0	1922	60.130772678452	0
0	1924	60.346642116817	1
0	1926	60.417339331896	2
0	1928	60.425999130807	2
0	1930	60.438388164768	2
0	1935	60.537554831435	0
0	1937	61.006810782223	1
0	1939	61.051755943341	2
0	1941	61.079554043505	2
0	1944	61.121331250679	2
0	1948	61.220497917346	0
0	1950	61.442429348257	1
0	1952	61.541596014924	0
0	1954	61.62887026097	1
0	1956	61.656954880744	2
0	1959	61.756121547411	0
0	1961	61.956380367808	1
0	1963	61.959189715294	2
0	1966	62.058356381961	0
0	1968	62.060792391978	1
0	1970	62.159959058645	0
0	1972	62.196703525699	1
0	1974	62.295870192366	0
0	1976	62.32574862359	1
0	1978	62.360547522266	2
0	1981	62.441894827475	2
0	1984	62.49455318012	2
0	1986	62.538848355191	2
0	1990	62.638015021858	0
0	1992	62.650160128457	1
0	1994	62.685867091907	2
0	1997	62.754614164296	2
0	1999	62.780959271801	2
0	2003	62.880125938468	0
0	2005	63.245958140316	1
0	2007	63.258984130895	2
0	2010	63.358150797562	0
0	2012	63.663341548429	1
0	2014	63.711211086636	2
0	2016	63.754063597019	2
0	2018	63.758590098754	2
0	2021	63.771740344832	2
0	2026	63.870907011499	0
0	2028	63.895715631416	1
0	2030	63.932325590759	2
0	2032	63.976204974308	2
0	2035	64.003162669221	2
0	2039	64.088528602407	2
0	2042	64.187695269074	0
0	2044	64.283003824051	1
0	2046	64.304751066967	2
0	2048	64.324928198846	2
0	2050	64.340947214515	2
0	2052	64.378088164173	2
0	2055	64.394593373924	2
0	2060	64.477184430054	2
0	2064	64.511972349054	2
0	2067	64.611139015721	0
0	2069	64.717960356592	1
0	2071	64.813592740443	2
0	2074	64.823603621661	2
0	2076	64.886936809423	2
0	2080	64.958049348584	2
0	2083	64.989571231171	2
0	2086	65.067608508557	2
0	2088	65.076686833932	2
0	2091	65.160613048531	2
0	2095	65.179608713968	2
0	2097	65.210050795053	2
0	2099	65.211789176292	2
0	2104	65.310955842959	0
0	2106	65.455508388675	1
0	2108	65.546285757962	2
0	2111	65.645452424629	0
0	2113	65.717711702423	1
0	2115	65.725905593596	2
0	2117	65.73672852362	2
0	2119	65.737143300232	2
0	2124	65.836309966899	0
0	2126	65.84897231358	1
0	2128	65.948138980247	0
0	2130	65.996467678787	1
0	2132	66.095634345454	0
0	2134	66.102633555679	1
0	2136	66.201800222346	0
0	2138	66.540024307717	1
0	2140	66.542794410527	2
0	2143	66.641961077194	0
0	2145	66.75762476815	1
0	2147	66.791944474824	2
0	2150	66.863732337894	2
0	2153	66.962899004561	0
0	2155	67.182862645039	1
0	2157	67.185797137593	2
0	2159	67.21600323323	2
0	2163	67.315169899897	0
0	2165	67.372093558049	1
0	2167	67.378336301546	2
0	2169	67.456544344436	2
0	2173	67.498585628013	2
0	2175	67.543265884215	2
0	2178	67.558725023719	2
0	2180	67.592192730381	2
0	2185	67.664621403503	2
0	2188	67.76378807017	0
0	2190	67.961919843678	1
0	2192	67.982424830346	2
0	2194	68.006282011134	2
0	2197	68.07435924118	2
0	2201	68.173525907847	0
0	2203	68.23549169926	1
0	2205	68.328665337771	2
0	2207	68.330140664168	2
0	2211	68.429307330835	0
0	2213	68.580126418407	1
0	2215	68.604986882229	2
0	2217	68.610564829786	2
0	2220	68.681361414737	2
0	2224	68.755790418778	2
0	2227	68.854957085445	0
0	2229	68.997317118673	1
0	2231	69.041907958435	2
0	2233	69.058128929619	2
0	2235	69.069201116484	2
0	2238	69.132130728291	2
0	2243	69.194898445906	2
0	2245	69.215947148332	2
0	2247	69.223549017051	2
0	2249	69.227866080783	2
0	2255	69.32703274745	0
0	2257	69.359453992466	1
0	2259	69.361962727767	2
0	2261	69.426691996575	2
0	2265	69.495949672612	2
0	2268	69.595116339279	0
0	2270	69.618943154108	1
0	2272	69.718109820775	0
0	2274	69.723210666855	1
0	2276	69.822377333522	0
0	2278	69.914348866033	1
0	2280	70.0135155327	0
0	2282	70.178169706925	1
0	2284	70.277336373592	0
0	2286	70.348677268583	1
0	2288	70.44784393525	0
0	2290	70.452263084953	1
0	2292	70.487999623206	2
0	2294	70.5391998061	2
0	2297	70.554241166932	2
0	2300	70.613521313012	2
0	2304	70.712687979679	0
0	2306	70.726969635469	1
0	2308	70.739572272909	2
0	2311	70.838738939576	0
0	2313	70.87095084396	1
0	2315	70.881020502996	2
0	2318	70.980187169663	0
0	2320	71.124833359016	1
0	2322	71.224000025683	0
0	2324	71.432528372808	1
0	2326	71.52911421367	2
0	2329	71.628280880337	0
0	2331	71.647909753133	1
0	2333	71.729791025778	2
0	2336	71.828957692445	0
0	2338	71.881685135911	1
0	2340	71.980851802578	0
0	2342	72.037053344586	1
0	2344	72.136220011253	0
0	2346	72.323106253909	1
0	2348	72.422272920576	0
0	2350	72.566123571666	1
0	2352	72.619863763486	2
0	2355	72.666406214067	2
0	2357	72.681284657374	2
0	2361	72.780451324041	0
0	2363	72.860277265774	1
0	2365	72.956857319279	2
0	2368	73.056023985946	0
0	2370	73.172690174846	1
0	2372	73.271856841513	0
0	2374	73.372516663784	1
0	2376	73.471683330451	0
0	2378	73.47696062752	1
0	2380	73.540254638758	2
0	2383	73.589957195834	2
0	2385	73.599161706795	2
0	2388	73.647763810304	2
0	2392	73.719131210287	2
0	2395	73.782963645525	2
0	2398	73.882130312192	0
0	2400	74.065341510564	1
0	2402	74.090007731717	2
0	2404	74.122097973589	2
0	2406	74.137120448834	2
0	2411	74.236287115501	0
0	2413	74.278139108517	1
0	2415	74.366839163693	2
0	2418	74.434730168469	2
0	2421	74.507033235513	2
0	2423	74.510116615119	2
0	2426	74.568577766673	2
0	2428	74.591481060371	2
0	2433	74.690647727038	0
0	2435	74.738814667366	1
0	2437	74.837981334033	0
0	2439	74.930188665386	1
0	2441	74.969812527989	2
0	2444	75.068979194656	0
0	2446	75.354291510653	1
0	2448	75.45345817732	0
0	2450	75.520149076311	1
0	2452	75.550335743242	2
0	2455	75.62801209689	2
0	2458	75.717246120394	2
0	2461	75.794054952219	2
0	2464	75.893221618886	0
0	2466	76.024144528683	1
0	2468	76.12331119535	0
0	2470	76.14836876648	1
0	2472	76.247535433147	0
0	2474	76.359864786703	1
0	2476	76.45903145337	0
0	2478	76.460589071145	1
0	2480	76.474108178117	2
0	2483	76.573274844784	0
0	2485	76.606201412753	1
0	2487	76.680405147734	2
0	2490	76.779571814401	0
0	2492	77.001465166526	1
0	2494	77.100631833193	0
0	2496	77.136466997039	1
0	2498	77.189276348694	2
0	2501	77.288443015361	0
0	2503	77.341341074829	1
0	2505	77.421073046507	2
0	2508	77.520239713174	0
0	2510	77.544978086748	1
0	2512	77.554174310497	2
0	2515	77.653340977164	0
0	2517	77.665002772189	1
0	2519	77.670654049576	2
0	2522	77.769820716243	0
0	2524	77.854010248072	1
0	2526	77.953176914739	0
0	2528	77.977162389527	1
0	2530	78.076329056194	0
0	2532	78.223297627917	1
0	2534	78.261487647364	2
0	2536	78.269411614249	2
0	2539	78.330752770678	2
0	2543	78.377361756118	2
0	2546	78.475840147665	2
0	2549	78.575006814332	0
0	2551	78.608657455733	1
0	2553	78.610934377642	2